
     Program PWSCF v.7.5 starts on 21Apr2026 at 23: 2:46 

     This program is part of the open-source Quantum ESPRESSO suite
     for quantum simulation of materials; please cite
         "P. Giannozzi et al., J. Phys.:Condens. Matter 21 395502 (2009);
         "P. Giannozzi et al., J. Phys.:Condens. Matter 29 465901 (2017);
         "P. Giannozzi et al., J. Chem. Phys. 152 154105 (2020);
          URL http://www.quantum-espresso.org", 
     in publications or presentations arising from this work. More details at
     http://www.quantum-espresso.org/quote

     Parallel version (MPI), running on     1 processors

     MPI processes distributed on     1 nodes
     0 MiB available memory on the printing compute node when the environment starts

     Reading input from si_bands.in

     Current dimensions of program PWSCF are:
     Max number of different atomic species (ntypx) = 10
     Max number of k-points (npk) =  40000
     Max angular momentum in pseudopotentials (lmaxx) =  4

     Atomic positions and unit cell read from directory:
     ./tmp/si.save/
     Atomic positions from file used, from input discarded

     Message from routine setup:
     using ibrav=0 with symmetry is DISCOURAGED, use correct ibrav instead

     Subspace diagonalization in iterative solution of the eigenvalue problem:
     a serial algorithm will be used


     G-vector sticks info
     --------------------
     sticks:   dense  smooth     PW     G-vecs:    dense   smooth      PW
     Sum        1285     649    199                30923    10969    1759

     Using Slab Decomposition



     bravais-lattice index     =            0
     lattice parameter (alat)  =       7.2558  a.u.
     unit-cell volume          =     277.7484 (a.u.)^3
     number of atoms/cell      =            2
     number of atomic types    =            1
     number of electrons       =         8.00
     number of Kohn-Sham states=            8
     kinetic-energy cutoff     =      44.0000  Ry
     charge density cutoff     =     352.0000  Ry
     Exchange-correlation= PBE
                           (   1   4   3   4   0   0   0)

     celldm(1)=   7.255773  celldm(2)=   0.000000  celldm(3)=   0.000000
     celldm(4)=   0.000000  celldm(5)=   0.000000  celldm(6)=   0.000000

     crystal axes: (cart. coord. in units of alat)
               a(1) = (   0.000000   0.713713   0.713713 )  
               a(2) = (   0.713713   0.000000   0.713713 )  
               a(3) = (   0.713713   0.713713   0.000000 )  

     reciprocal axes: (cart. coord. in units 2 pi/alat)
               b(1) = ( -0.700562  0.700562  0.700562 )  
               b(2) = (  0.700562 -0.700562  0.700562 )  
               b(3) = (  0.700562  0.700562 -0.700562 )  


     PseudoPot. # 1 for Si read from file:
     /tmp/orion-qe-fixtures/pseudos/Si.pbe-n-rrkjus_psl.1.0.0.UPF
     MD5 check sum: 0b0bb1205258b0d07b9f9672cf965d36
     Pseudo is Ultrasoft + core correction, Zval =  4.0
     Generated using "atomic" code by A. Dal Corso  v.5.1
     Using radial grid of 1141 points,  6 beta functions with: 
                l(1) =   0
                l(2) =   0
                l(3) =   1
                l(4) =   1
                l(5) =   2
                l(6) =   2
     Q(r) pseudized with 0 coefficients 


     atomic species   valence    mass     pseudopotential
     Si                4.00    28.08600     Si( 1.00)

     48 Sym. Ops., with inversion, found (24 have fractional translation)



   Cartesian axes

     site n.     atom                  positions (alat units)
         1        Si     tau(   1) = (   0.0000000  -0.0000000   0.0000000  )
         2        Si     tau(   2) = (   0.3568564   0.3568564   0.3568564  )

     number of k points=     3
                       cart. coord. in units 2pi/alat
        k(    1) = (   0.0000000   0.0000000   0.0000000), wk =   0.6666667
        k(    2) = (   0.1751405   0.1751405   0.1751405), wk =   0.6666667
        k(    3) = (   0.3502810   0.3502810   0.3502810), wk =   0.6666667

     Dense  grid:    30923 G-vectors     FFT dimensions: (  48,  48,  48)

     Smooth grid:    10969 G-vectors     FFT dimensions: (  32,  32,  32)

     Estimated max dynamical RAM per process >     102.57 MB

     The potential is recalculated from file :
     ./tmp/si.save/charge-density

     Starting wfcs are    8 randomized atomic wfcs

     Band Structure Calculation
     Davidson diagonalization with overlap

     ethr =  1.25E-10,  avg # of iterations = 27.3

     total cpu time spent up to now is        0.5 secs

     End of band structure calculation

          k = 0.0000 0.0000 0.0000 (  1363 PWs)   bands (ev):

    -5.8219   5.9606   5.9606   5.9606   8.4943   8.4943   8.4943   9.0107

          k = 0.1751 0.1751 0.1751 (  1375 PWs)   bands (ev):

    -5.0413   2.0756   5.2145   5.2145   7.8855   9.4281   9.4281  12.6530

          k = 0.3503 0.3503 0.3503 (  1380 PWs)   bands (ev):

    -3.5572  -0.8927   4.7811   4.7811   7.3944   9.2937   9.2937  13.6472

     Writing all to output data dir ./tmp/si.save/ :
     XML data file, pseudopotentials, collected wavefunctions

     init_run     :      0.22s CPU      0.23s WALL (       1 calls)
     electrons    :      0.20s CPU      0.21s WALL (       1 calls)

     Called by init_run:
     wfcinit      :      0.00s CPU      0.00s WALL (       1 calls)
     potinit      :      0.02s CPU      0.02s WALL (       1 calls)
     hinit0       :      0.15s CPU      0.15s WALL (       1 calls)

     Called by electrons:
     c_bands      :      0.20s CPU      0.21s WALL (       1 calls)
     v_of_rho     :      0.02s CPU      0.02s WALL (       1 calls)
     newd         :      0.03s CPU      0.04s WALL (       1 calls)

     Called by c_bands:
     init_us_2    :      0.00s CPU      0.00s WALL (       3 calls)
     cegterg      :      0.18s CPU      0.19s WALL (       6 calls)

     Called by *egterg:
     cdiaghg      :      0.00s CPU      0.00s WALL (      85 calls)
     h_psi        :      0.15s CPU      0.16s WALL (      91 calls)
     s_psi        :      0.01s CPU      0.01s WALL (      91 calls)
     g_psi        :      0.00s CPU      0.00s WALL (      82 calls)

     Called by h_psi:
     h_psi:calbec :      0.01s CPU      0.01s WALL (      91 calls)
     vloc_psi     :      0.13s CPU      0.13s WALL (      91 calls)
                                        0.00s GPU  (      91 calls)
     add_vuspsi   :      0.01s CPU      0.01s WALL (      91 calls)

     General routines
     calbec       :      0.01s CPU      0.01s WALL (      91 calls)
     fft          :      0.01s CPU      0.01s WALL (      13 calls)
     ffts         :      0.00s CPU      0.00s WALL (       1 calls)
     fftw         :      0.11s CPU      0.11s WALL (    1106 calls)
     interpolate  :      0.00s CPU      0.00s WALL (       1 calls)
     davcio       :      0.00s CPU      0.00s WALL (       6 calls)

     Parallel routines

     PWSCF        :      0.46s CPU      0.51s WALL


   This run was terminated on:  23: 2:47  21Apr2026            

=------------------------------------------------------------------------------=
   JOB DONE.
=------------------------------------------------------------------------------=
