
     Program PHONON v.7.5 starts on 21Apr2026 at 23: 2:10 

     This program is part of the open-source Quantum ESPRESSO suite
     for quantum simulation of materials; please cite
         "P. Giannozzi et al., J. Phys.:Condens. Matter 21 395502 (2009);
         "P. Giannozzi et al., J. Phys.:Condens. Matter 29 465901 (2017);
         "P. Giannozzi et al., J. Chem. Phys. 152 154105 (2020);
          URL http://www.quantum-espresso.org", 
     in publications or presentations arising from this work. More details at
     http://www.quantum-espresso.org/quote

     Parallel version (MPI), running on     1 processors

     MPI processes distributed on     1 nodes
     0 MiB available memory on the printing compute node when the environment starts

     Reading input from si_ph.in

     Reading xml data from directory:

     ./tmp/si.save/

     Subspace diagonalization in iterative solution of the eigenvalue problem:
     a serial algorithm will be used


     IMPORTANT: XC functional enforced from input :
     Exchange-correlation= PBE
                           (   1   4   3   4   0   0   0)
     Any further DFT definition will be discarded
     Please, verify this is what you really want


     G-vector sticks info
     --------------------
     sticks:   dense  smooth     PW     G-vecs:    dense   smooth      PW
     Sum        1285     649    199                30731    10849    1837

     Using Slab Decomposition

     Reading collected, re-writing distributed wavefunctions in ./tmp/

     Number and degeneracy of irreps per q-point
       N         xq(1)         xq(2)         xq(3)   N irreps
       1   0.000000000   0.000000000   0.000000000       2
        3   3

     Calculation of q =    0.0000000   0.0000000   0.0000000

     Phonons at Gamma                                                           

     bravais-lattice index     =            0
     lattice parameter (alat)  =       7.2558  a.u.
     unit-cell volume          =     277.7484 (a.u.)^3
     number of atoms/cell      =            2
     number of atomic types    =            1
     kinetic-energy cut-off    =      43.7000  Ry
     charge density cut-off    =     349.9000  Ry
     convergence threshold     =      1.0E-14
     beta                      =       0.7000
     number of iterations used =            4
     Exchange-correlation= PBE
                           (   1   4   3   4   0   0   0)


     celldm(1)=    7.25577  celldm(2)=    0.00000  celldm(3)=    0.00000
     celldm(4)=    0.00000  celldm(5)=    0.00000  celldm(6)=    0.00000

     crystal axes: (cart. coord. in units of alat)
               a(1) = (  0.0000  0.7137  0.7137 )  
               a(2) = (  0.7137  0.0000  0.7137 )  
               a(3) = (  0.7137  0.7137  0.0000 )  

     reciprocal axes: (cart. coord. in units 2 pi/alat)
               b(1) = ( -0.7006  0.7006  0.7006 )  
               b(2) = (  0.7006 -0.7006  0.7006 )  
               b(3) = (  0.7006  0.7006 -0.7006 )  


     Atoms inside the unit cell: 

     Cartesian axes

     site n.  atom      mass           positions (alat units)
        1  Si     28.0860   tau(    1) = (    0.00000   -0.00000    0.00000  )
        2  Si     28.0860   tau(    2) = (    0.35686    0.35686    0.35686  )

     Computing dynamical matrix for 
                    q = (   0.0000000   0.0000000   0.0000000 )

     49 Sym.Ops. (with q -> -q+G )


     G cutoff =  466.6074  (  30731 G-vectors)     FFT grid: ( 48, 48, 48)
     G cutoff =  233.1037  (  10849 G-vectors)  smooth grid: ( 32, 32, 32)

     number of k points=     8  Gaussian smearing, width (Ry)=  0.0100
                       cart. coord. in units 2pi/alat
        k(    1) = (   0.0000000   0.0000000   0.0000000), wk =   0.0312500
        k(    2) = (   0.1751405   0.1751405  -0.1751405), wk =   0.2500000
        k(    3) = (  -0.3502810  -0.3502810   0.3502810), wk =   0.1250000
        k(    4) = (   0.3502810   0.0000000   0.0000000), wk =   0.1875000
        k(    5) = (  -0.1751405  -0.5254214   0.5254214), wk =   0.7500000
        k(    6) = (   0.0000000  -0.3502810   0.3502810), wk =   0.3750000
        k(    7) = (  -0.7005619   0.0000000   0.0000000), wk =   0.0937500
        k(    8) = (  -0.7005619   0.3502810   0.0000000), wk =   0.1875000

     PseudoPot. # 1 for Si read from file:
     /tmp/orion-qe-fixtures/pseudos/Si.pbe-n-rrkjus_psl.1.0.0.UPF
     MD5 check sum: 0b0bb1205258b0d07b9f9672cf965d36
     Pseudo is Ultrasoft + core correction, Zval =  4.0
     Generated using "atomic" code by A. Dal Corso  v.5.1
     Using radial grid of 1141 points,  6 beta functions with: 
                l(1) =   0
                l(2) =   0
                l(3) =   1
                l(4) =   1
                l(5) =   2
                l(6) =   2
     Q(r) pseudized with 0 coefficients 


     Mode symmetry, O_h (m-3m)  point group:


     Atomic displacements:
     There are    2 irreducible representations

     Representation     1      3 modes -  To be done

     Representation     2      3 modes -  To be done



     Alpha used in Ewald sum =   2.8000
     PHONON       :      0.96s CPU      1.01s WALL



     Representation #   1 modes #   1   2   3

     Self-consistent Calculation

     Pert. #  1: Fermi energy shift (Ry) =    -1.3878E-17     7.8366E-38
     Pert. #  2: Fermi energy shift (Ry) =     6.0715E-18    -1.9592E-39
     Pert. #  3: Fermi energy shift (Ry) =    -3.8164E-17     1.6457E-37

      iter #   1 total cpu time :     1.7 secs   av.it.:   4.5
      thresh= 1.000E-02 alpha_mix =  0.700 |ddv_scf|^2 =  1.445E-08

     Pert. #  1: Fermi energy shift (Ry) =    -2.2588E-20     3.1347E-38
     Pert. #  2: Fermi energy shift (Ry) =     1.1294E-21     9.9917E-38
     Pert. #  3: Fermi energy shift (Ry) =    -8.1315E-20     4.0750E-37

      iter #   2 total cpu time :     2.6 secs   av.it.:   9.7
      thresh= 1.202E-05 alpha_mix =  0.700 |ddv_scf|^2 =  9.623E-10

     Pert. #  1: Fermi energy shift (Ry) =     0.0000E+00     6.8571E-38
     Pert. #  2: Fermi energy shift (Ry) =     5.6469E-22     3.9183E-39
     Pert. #  3: Fermi energy shift (Ry) =     8.4703E-21     1.0971E-37

      iter #   3 total cpu time :     3.5 secs   av.it.:   9.5
      thresh= 3.102E-06 alpha_mix =  0.700 |ddv_scf|^2 =  4.155E-11

     Pert. #  1: Fermi energy shift (Ry) =    -9.2203E-22     1.2539E-37
     Pert. #  2: Fermi energy shift (Ry) =     2.4154E-22     2.8408E-38
     Pert. #  3: Fermi energy shift (Ry) =    -1.0588E-21     1.6457E-37

      iter #   4 total cpu time :     4.3 secs   av.it.:   9.4
      thresh= 6.446E-07 alpha_mix =  0.700 |ddv_scf|^2 =  8.101E-14

     Pert. #  1: Fermi energy shift (Ry) =     2.2940E-22     1.9592E-38
     Pert. #  2: Fermi energy shift (Ry) =    -7.9409E-23     0.0000E+00
     Pert. #  3: Fermi energy shift (Ry) =     3.8822E-22     1.3322E-37

      iter #   5 total cpu time :     5.2 secs   av.it.:   9.9
      thresh= 2.846E-08 alpha_mix =  0.700 |ddv_scf|^2 =  1.072E-15

     End of self-consistent calculation

     Convergence has been achieved 


     Representation #   2 modes #   4   5   6

     Self-consistent Calculation

     Pert. #  1: Fermi energy shift (Ry) =     5.7351E-23    -6.4198E-34
     Pert. #  2: Fermi energy shift (Ry) =    -1.7647E-23     1.2840E-33
     Pert. #  3: Fermi energy shift (Ry) =    -1.3235E-23    -2.8889E-34

      iter #   1 total cpu time :     6.0 secs   av.it.:   5.0
      thresh= 1.000E-02 alpha_mix =  0.700 |ddv_scf|^2 =  1.361E-08

     Pert. #  1: Fermi energy shift (Ry) =    -2.2940E-22    -3.5108E-36
     Pert. #  2: Fermi energy shift (Ry) =    -3.5293E-23    -4.0124E-36
     Pert. #  3: Fermi energy shift (Ry) =     3.8822E-22     3.1347E-36

      iter #   2 total cpu time :     6.9 secs   av.it.:   9.7
      thresh= 1.167E-05 alpha_mix =  0.700 |ddv_scf|^2 =  1.055E-09

     Pert. #  1: Fermi energy shift (Ry) =     1.1470E-22    -2.5077E-37
     Pert. #  2: Fermi energy shift (Ry) =    -1.7647E-23    -7.5232E-37
     Pert. #  3: Fermi energy shift (Ry) =    -4.4116E-24     3.4481E-37

      iter #   3 total cpu time :     7.7 secs   av.it.:   9.7
      thresh= 3.248E-06 alpha_mix =  0.700 |ddv_scf|^2 =  4.129E-11

     Pert. #  1: Fermi energy shift (Ry) =     1.7647E-23    -1.2539E-37
     Pert. #  2: Fermi energy shift (Ry) =    -3.5293E-23    -3.7616E-37
     Pert. #  3: Fermi energy shift (Ry) =     3.5293E-23     3.2914E-37

      iter #   4 total cpu time :     8.6 secs   av.it.:   9.8
      thresh= 6.426E-07 alpha_mix =  0.700 |ddv_scf|^2 =  1.258E-13

     Pert. #  1: Fermi energy shift (Ry) =     7.4998E-23    -1.1755E-38
     Pert. #  2: Fermi energy shift (Ry) =    -1.7647E-23    -4.8979E-39
     Pert. #  3: Fermi energy shift (Ry) =     3.0881E-23     0.0000E+00

      iter #   5 total cpu time :     9.5 secs   av.it.:  10.2
      thresh= 3.547E-08 alpha_mix =  0.700 |ddv_scf|^2 =  5.906E-16

     End of self-consistent calculation

     Convergence has been achieved 

     Number of q in the star =    1
     List of q in the star:
          1   0.000000000   0.000000000   0.000000000

     Diagonalizing the dynamical matrix

     q = (    0.000000000   0.000000000   0.000000000 ) 

 **************************************************************************
     freq (    1) =       0.104883 [THz] =       3.498523 [cm-1]
     freq (    2) =       0.104883 [THz] =       3.498523 [cm-1]
     freq (    3) =       0.104883 [THz] =       3.498523 [cm-1]
     freq (    4) =      15.272302 [THz] =     509.429169 [cm-1]
     freq (    5) =      15.272302 [THz] =     509.429169 [cm-1]
     freq (    6) =      15.272302 [THz] =     509.429169 [cm-1]
 **************************************************************************

     Mode symmetry, O_h (m-3m)  point group:

     freq (   1-   3) =          3.5  [cm-1]   --> T_1u G_15  G_4- I  
     freq (   4-   6) =        509.4  [cm-1]   --> T_2g G_25' G_5+ R  

     PHONON       :      8.69s CPU      9.57s WALL

     INITIALIZATION: 
     phq_setup    :      0.05s CPU      0.06s WALL (       1 calls)
     phq_init     :      0.65s CPU      0.67s WALL (       1 calls)

     phq_init     :      0.65s CPU      0.67s WALL (       1 calls)
     set_drhoc    :      0.00s CPU      0.00s WALL (       3 calls)
     init_vloc    :      0.02s CPU      0.02s WALL (       1 calls)
     init_us_1    :      0.10s CPU      0.10s WALL (       1 calls)
     init_us_2    :      0.02s CPU      0.03s WALL (     152 calls)
     newd         :      0.03s CPU      0.04s WALL (       1 calls)
     dvanqq       :      0.37s CPU      0.38s WALL (       1 calls)
     drho         :      0.23s CPU      0.24s WALL (       1 calls)
     drhous       :      0.05s CPU      0.06s WALL (       1 calls)
     nldyntot     :      0.00s CPU      0.00s WALL (       1 calls)

     DYNAMICAL MATRIX:
     dynmat0      :      0.04s CPU      0.04s WALL (       1 calls)
     dynmat_us    :      0.02s CPU      0.02s WALL (       1 calls)
     addusdynmat  :      0.00s CPU      0.00s WALL (       1 calls)
     d2ionq       :      0.00s CPU      0.00s WALL (       1 calls)
     dynmatcc     :      0.02s CPU      0.02s WALL (       1 calls)
     phqscf       :      7.73s CPU      8.54s WALL (       1 calls)
     dynmatrix    :      0.00s CPU      0.00s WALL (       1 calls)

     phqscf       :      7.73s CPU      8.54s WALL (       1 calls)
     solve_linter :      7.70s CPU      8.46s WALL (       2 calls)
     dfpt_kernel  :      7.44s CPU      8.19s WALL (       2 calls)
     sth_kernel   :      3.96s CPU      4.55s WALL (      10 calls)
     h_prec       :      0.00s CPU      0.00s WALL (      80 calls)
     apply_dpot_b :      0.19s CPU      0.20s WALL (     192 calls)
     ortho        :      0.07s CPU      0.10s WALL (     240 calls)
     cgsolve      :      3.40s CPU      3.91s WALL (     240 calls)
     incdrhoscf   :      0.26s CPU      0.29s WALL (     240 calls)
                                        0.00s GPU  (     240 calls)
     addusddens   :      0.75s CPU      0.77s WALL (      12 calls)
     dv_of_drho   :      0.32s CPU      0.35s WALL (      30 calls)
     mix_pot      :      0.01s CPU      0.06s WALL (      10 calls)
     ef_shift     :      0.05s CPU      0.05s WALL (      10 calls)
     ef_shift_wfc :      0.00s CPU      0.00s WALL (       2 calls)
     localdos     :      0.11s CPU      0.11s WALL (       2 calls)
     drhodv       :      0.04s CPU      0.04s WALL (       2 calls)
     psymdvscf    :      0.89s CPU      0.91s WALL (      10 calls)
     newdq        :      1.44s CPU      1.46s WALL (      10 calls)
     adddvscf     :      0.03s CPU      0.03s WALL (     192 calls)
     com_dvloc    :      0.02s CPU      0.02s WALL (      66 calls)
                                        0.00s GPU  (      66 calls)
     addcore      :      0.05s CPU      0.05s WALL (      48 calls)
                                        0.00s GPU  (      48 calls)
     drhodvus     :      0.01s CPU      0.01s WALL (       2 calls)

     dvqpsi_us    :      0.14s CPU      0.15s WALL (      48 calls)
                                        0.00s GPU  (      48 calls)
     dvqpsi_us_on :      0.04s CPU      0.04s WALL (      48 calls)

     add_vuspsi   :      0.19s CPU      0.26s WALL (    2533 calls)
     addusdbec    :      0.04s CPU      0.06s WALL (     288 calls)

     drhodvus     :      0.01s CPU      0.01s WALL (       2 calls)

      General routines
     calbec       :      0.58s CPU      0.79s WALL (    5882 calls)
     fft          :      0.48s CPU      0.49s WALL (     648 calls)
     ffts         :      0.05s CPU      0.05s WALL (     203 calls)
     fftw         :      2.33s CPU      2.35s WALL (   22898 calls)
     davcio       :      0.00s CPU      0.06s WALL (    1124 calls)
     write_rec    :      0.00s CPU      0.07s WALL (      12 calls)

      Additional routines
     ch_psi       :      3.32s CPU      3.83s WALL (    2533 calls)
     last         :      0.56s CPU      0.88s WALL (    2533 calls)
     Hesh         :      0.01s CPU      0.01s WALL (    2533 calls)
     ch_psi_all_k :      0.55s CPU      0.81s WALL (    2533 calls)
                                        0.00s GPU  (    2533 calls)
     ch_psi_calbe :      0.24s CPU      0.34s WALL (    2533 calls)
                                        0.00s GPU  (    2533 calls)
     h_psi_bgrp   :      2.55s CPU      2.73s WALL (    2533 calls)
     h_psi        :      2.55s CPU      2.73s WALL (    2533 calls)
     h_psi:pot    :      2.55s CPU      2.72s WALL (    2533 calls)
     h_psi:calbec :      0.24s CPU      0.31s WALL (    2533 calls)
     s_psi_bgrp   :      0.40s CPU      0.45s WALL (    5306 calls)
     s_psi        :      0.39s CPU      0.44s WALL (    5306 calls)


     PHONON       :      8.69s CPU      9.57s WALL


   This run was terminated on:  23: 2:20  21Apr2026            

=------------------------------------------------------------------------------=
   JOB DONE.
=------------------------------------------------------------------------------=
