ITEM: TIMESTEP
0
ITEM: NUMBER OF ATOMS
256
ITEM: BOX BOUNDS pp pp pp
0.0000000000000000e+00 6.7030688442967747e+00
0.0000000000000000e+00 6.7030688442967747e+00
0.0000000000000000e+00 6.7030688442967747e+00
ITEM: ATOMS id type x y z
1 1 0 0 0
2 1 0.837884 0.837884 0
3 1 0.837884 0 0.837884
4 1 0 0.837884 0.837884
5 1 1.67577 0 0
6 1 2.51365 0.837884 0
7 1 2.51365 0 0.837884
8 1 1.67577 0.837884 0.837884
9 1 3.35153 0 0
10 1 4.18942 0.837884 0
11 1 4.18942 0 0.837884
12 1 3.35153 0.837884 0.837884
13 1 5.0273 0 0
14 1 5.86519 0.837884 0
15 1 5.86519 0 0.837884
16 1 5.0273 0.837884 0.837884
17 1 0 1.67577 0
18 1 0.837884 2.51365 0
19 1 0.837884 1.67577 0.837884
20 1 0 2.51365 0.837884
21 1 1.67577 1.67577 0
22 1 2.51365 2.51365 0
23 1 2.51365 1.67577 0.837884
24 1 1.67577 2.51365 0.837884
25 1 3.35153 1.67577 0
26 1 4.18942 2.51365 0
27 1 4.18942 1.67577 0.837884
28 1 3.35153 2.51365 0.837884
29 1 5.0273 1.67577 0
30 1 5.86519 2.51365 0
31 1 5.86519 1.67577 0.837884
32 1 5.0273 2.51365 0.837884
33 1 0 3.35153 0
34 1 0.837884 4.18942 0
35 1 0.837884 3.35153 0.837884
36 1 0 4.18942 0.837884
37 1 1.67577 3.35153 0
38 1 2.51365 4.18942 0
39 1 2.51365 3.35153 0.837884
40 1 1.67577 4.18942 0.837884
41 1 3.35153 3.35153 0
42 1 4.18942 4.18942 0
43 1 4.18942 3.35153 0.837884
44 1 3.35153 4.18942 0.837884
45 1 5.0273 3.35153 0
46 1 5.86519 4.18942 0
47 1 5.86519 3.35153 0.837884
48 1 5.0273 4.18942 0.837884
49 1 0 5.0273 0
50 1 0.837884 5.86519 0
51 1 0.837884 5.0273 0.837884
52 1 0 5.86519 0.837884
53 1 1.67577 5.0273 0
54 1 2.51365 5.86519 0
55 1 2.51365 5.0273 0.837884
56 1 1.67577 5.86519 0.837884
57 1 3.35153 5.0273 0
58 1 4.18942 5.86519 0
59 1 4.18942 5.0273 0.837884
60 1 3.35153 5.86519 0.837884
61 1 5.0273 5.0273 0
62 1 5.86519 5.86519 0
63 1 5.86519 5.0273 0.837884
64 1 5.0273 5.86519 0.837884
65 1 0 0 1.67577
66 1 0.837884 0.837884 1.67577
67 1 0.837884 0 2.51365
68 1 0 0.837884 2.51365
69 1 1.67577 0 1.67577
70 1 2.51365 0.837884 1.67577
71 1 2.51365 0 2.51365
72 1 1.67577 0.837884 2.51365
73 1 3.35153 0 1.67577
74 1 4.18942 0.837884 1.67577
75 1 4.18942 0 2.51365
76 1 3.35153 0.837884 2.51365
77 1 5.0273 0 1.67577
78 1 5.86519 0.837884 1.67577
79 1 5.86519 0 2.51365
80 1 5.0273 0.837884 2.51365
81 1 0 1.67577 1.67577
82 1 0.837884 2.51365 1.67577
83 1 0.837884 1.67577 2.51365
84 1 0 2.51365 2.51365
85 1 1.67577 1.67577 1.67577
86 1 2.51365 2.51365 1.67577
87 1 2.51365 1.67577 2.51365
88 1 1.67577 2.51365 2.51365
89 1 3.35153 1.67577 1.67577
90 1 4.18942 2.51365 1.67577
91 1 4.18942 1.67577 2.51365
92 1 3.35153 2.51365 2.51365
93 1 5.0273 1.67577 1.67577
94 1 5.86519 2.51365 1.67577
95 1 5.86519 1.67577 2.51365
96 1 5.0273 2.51365 2.51365
97 1 0 3.35153 1.67577
98 1 0.837884 4.18942 1.67577
99 1 0.837884 3.35153 2.51365
100 1 0 4.18942 2.51365
101 1 1.67577 3.35153 1.67577
102 1 2.51365 4.18942 1.67577
103 1 2.51365 3.35153 2.51365
104 1 1.67577 4.18942 2.51365
105 1 3.35153 3.35153 1.67577
106 1 4.18942 4.18942 1.67577
107 1 4.18942 3.35153 2.51365
108 1 3.35153 4.18942 2.51365
109 1 5.0273 3.35153 1.67577
110 1 5.86519 4.18942 1.67577
111 1 5.86519 3.35153 2.51365
112 1 5.0273 4.18942 2.51365
113 1 0 5.0273 1.67577
114 1 0.837884 5.86519 1.67577
115 1 0.837884 5.0273 2.51365
116 1 0 5.86519 2.51365
117 1 1.67577 5.0273 1.67577
118 1 2.51365 5.86519 1.67577
119 1 2.51365 5.0273 2.51365
120 1 1.67577 5.86519 2.51365
121 1 3.35153 5.0273 1.67577
122 1 4.18942 5.86519 1.67577
123 1 4.18942 5.0273 2.51365
124 1 3.35153 5.86519 2.51365
125 1 5.0273 5.0273 1.67577
126 1 5.86519 5.86519 1.67577
127 1 5.86519 5.0273 2.51365
128 1 5.0273 5.86519 2.51365
129 1 0 0 3.35153
130 1 0.837884 0.837884 3.35153
131 1 0.837884 0 4.18942
132 1 0 0.837884 4.18942
133 1 1.67577 0 3.35153
134 1 2.51365 0.837884 3.35153
135 1 2.51365 0 4.18942
136 1 1.67577 0.837884 4.18942
137 1 3.35153 0 3.35153
138 1 4.18942 0.837884 3.35153
139 1 4.18942 0 4.18942
140 1 3.35153 0.837884 4.18942
141 1 5.0273 0 3.35153
142 1 5.86519 0.837884 3.35153
143 1 5.86519 0 4.18942
144 1 5.0273 0.837884 4.18942
145 1 0 1.67577 3.35153
146 1 0.837884 2.51365 3.35153
147 1 0.837884 1.67577 4.18942
148 1 0 2.51365 4.18942
149 1 1.67577 1.67577 3.35153
150 1 2.51365 2.51365 3.35153
151 1 2.51365 1.67577 4.18942
152 1 1.67577 2.51365 4.18942
153 1 3.35153 1.67577 3.35153
154 1 4.18942 2.51365 3.35153
155 1 4.18942 1.67577 4.18942
156 1 3.35153 2.51365 4.18942
157 1 5.0273 1.67577 3.35153
158 1 5.86519 2.51365 3.35153
159 1 5.86519 1.67577 4.18942
160 1 5.0273 2.51365 4.18942
161 1 0 3.35153 3.35153
162 1 0.837884 4.18942 3.35153
163 1 0.837884 3.35153 4.18942
164 1 0 4.18942 4.18942
165 1 1.67577 3.35153 3.35153
166 1 2.51365 4.18942 3.35153
167 1 2.51365 3.35153 4.18942
168 1 1.67577 4.18942 4.18942
169 1 3.35153 3.35153 3.35153
170 1 4.18942 4.18942 3.35153
171 1 4.18942 3.35153 4.18942
172 1 3.35153 4.18942 4.18942
173 1 5.0273 3.35153 3.35153
174 1 5.86519 4.18942 3.35153
175 1 5.86519 3.35153 4.18942
176 1 5.0273 4.18942 4.18942
177 1 0 5.0273 3.35153
178 1 0.837884 5.86519 3.35153
179 1 0.837884 5.0273 4.18942
180 1 0 5.86519 4.18942
181 1 1.67577 5.0273 3.35153
182 1 2.51365 5.86519 3.35153
183 1 2.51365 5.0273 4.18942
184 1 1.67577 5.86519 4.18942
185 1 3.35153 5.0273 3.35153
186 1 4.18942 5.86519 3.35153
187 1 4.18942 5.0273 4.18942
188 1 3.35153 5.86519 4.18942
189 1 5.0273 5.0273 3.35153
190 1 5.86519 5.86519 3.35153
191 1 5.86519 5.0273 4.18942
192 1 5.0273 5.86519 4.18942
193 1 0 0 5.0273
194 1 0.837884 0.837884 5.0273
195 1 0.837884 0 5.86519
196 1 0 0.837884 5.86519
197 1 1.67577 0 5.0273
198 1 2.51365 0.837884 5.0273
199 1 2.51365 0 5.86519
200 1 1.67577 0.837884 5.86519
201 1 3.35153 0 5.0273
202 1 4.18942 0.837884 5.0273
203 1 4.18942 0 5.86519
204 1 3.35153 0.837884 5.86519
205 1 5.0273 0 5.0273
206 1 5.86519 0.837884 5.0273
207 1 5.86519 0 5.86519
208 1 5.0273 0.837884 5.86519
209 1 0 1.67577 5.0273
210 1 0.837884 2.51365 5.0273
211 1 0.837884 1.67577 5.86519
212 1 0 2.51365 5.86519
213 1 1.67577 1.67577 5.0273
214 1 2.51365 2.51365 5.0273
215 1 2.51365 1.67577 5.86519
216 1 1.67577 2.51365 5.86519
217 1 3.35153 1.67577 5.0273
218 1 4.18942 2.51365 5.0273
219 1 4.18942 1.67577 5.86519
220 1 3.35153 2.51365 5.86519
221 1 5.0273 1.67577 5.0273
222 1 5.86519 2.51365 5.0273
223 1 5.86519 1.67577 5.86519
224 1 5.0273 2.51365 5.86519
225 1 0 3.35153 5.0273
226 1 0.837884 4.18942 5.0273
227 1 0.837884 3.35153 5.86519
228 1 0 4.18942 5.86519
229 1 1.67577 3.35153 5.0273
230 1 2.51365 4.18942 5.0273
231 1 2.51365 3.35153 5.86519
232 1 1.67577 4.18942 5.86519
233 1 3.35153 3.35153 5.0273
234 1 4.18942 4.18942 5.0273
235 1 4.18942 3.35153 5.86519
236 1 3.35153 4.18942 5.86519
237 1 5.0273 3.35153 5.0273
238 1 5.86519 4.18942 5.0273
239 1 5.86519 3.35153 5.86519
240 1 5.0273 4.18942 5.86519
241 1 0 5.0273 5.0273
242 1 0.837884 5.86519 5.0273
243 1 0.837884 5.0273 5.86519
244 1 0 5.86519 5.86519
245 1 1.67577 5.0273 5.0273
246 1 2.51365 5.86519 5.0273
247 1 2.51365 5.0273 5.86519
248 1 1.67577 5.86519 5.86519
249 1 3.35153 5.0273 5.0273
250 1 4.18942 5.86519 5.0273
251 1 4.18942 5.0273 5.86519
252 1 3.35153 5.86519 5.86519
253 1 5.0273 5.0273 5.0273
254 1 5.86519 5.86519 5.0273
255 1 5.86519 5.0273 5.86519
256 1 5.0273 5.86519 5.86519
ITEM: TIMESTEP
200
ITEM: NUMBER OF ATOMS
256
ITEM: BOX BOUNDS pp pp pp
0.0000000000000000e+00 6.7030688442967747e+00
0.0000000000000000e+00 6.7030688442967747e+00
0.0000000000000000e+00 6.7030688442967747e+00
ITEM: ATOMS id type x y z
1 1 6.46743 6.56769 6.53384
2 1 0.567336 0.899952 0.149753
3 1 0.775462 6.54428 0.868688
4 1 6.62718 0.677592 0.992215
5 1 1.51998 6.66585 6.69822
6 1 2.43708 0.966216 0.0332568
7 1 2.5243 0.208081 0.647915
8 1 1.55658 0.641016 0.743748
9 1 3.40624 6.68651 6.67779
10 1 4.11913 0.729076 0.0899492
11 1 4.12216 6.66695 0.900838
12 1 3.43589 0.833342 0.941679
13 1 4.85148 0.0121827 6.64242
14 1 6.09982 0.877641 6.65009
15 1 5.61713 0.0918934 0.694957
16 1 5.03081 0.925076 0.825789
17 1 6.63197 1.91574 0.11614
18 1 0.950252 2.44726 0.122542
19 1 0.587948 1.74272 0.871476
20 1 0.103731 2.59718 1.30887
21 1 1.56234 1.69891 0.314254
22 1 2.47511 2.60544 6.70218
23 1 2.60565 1.58636 0.844376
24 1 1.66307 2.67581 0.793437
25 1 3.3247 1.75594 6.57642
26 1 4.2493 2.60366 0.0358727
27 1 4.14624 1.64253 0.835666
28 1 3.43492 2.37509 0.7207
29 1 5.13771 1.56972 6.64471
30 1 5.8615 2.59565 6.62543
31 1 5.83573 1.64065 0.910408
32 1 4.97803 2.59145 0.863615
33 1 0.171546 3.21747 0.0817935
34 1 0.933515 4.41964 0.385551
35 1 0.725279 3.53057 1.12134
36 1 6.61729 4.29878 0.802746
37 1 1.39976 3.57339 0.121019
38 1 2.6492 4.15479 6.53726
39 1 2.51382 3.45942 0.727179
40 1 1.89453 4.15986 0.933857
41 1 3.37899 3.2491 6.66401
42 1 4.188 4.10582 6.68696
43 1 4.09656 3.30733 0.885483
44 1 3.40217 4.15242 0.921738
45 1 5.0998 3.40183 0.119605
46 1 5.94874 4.14362 6.60049
47 1 6.05581 3.17727 0.833268
48 1 4.98957 4.20852 0.788949
49 1 6.55407 5.16317 6.60319
50 1 0.577855 5.91954 6.53783
51 1 0.575549 5.38035 0.75636
52 1 6.40389 5.96728 0.749324
53 1 1.88679 4.96568 0.141362
54 1 2.57347 6.06138 6.56308
55 1 2.65578 4.95142 0.919817
56 1 1.61878 5.46233 1.07391
57 1 3.29795 5.10853 0.0238491
58 1 4.10188 5.83403 0.0114667
59 1 4.20506 4.95156 0.773934
60 1 3.25946 5.89989 0.950856
61 1 5.13842 4.82461 6.54448
62 1 5.65376 5.77343 6.54897
63 1 5.76324 5.1046 0.840286
64 1 4.96207 5.76259 0.658554
65 1 6.53993 6.38451 1.85796
66 1 0.897287 0.890109 1.67346
67 1 0.829154 6.57869 2.45058
68 1 0.0430707 0.797028 2.35569
69 1 1.73549 6.55936 1.92192
70 1 2.35623 0.635471 1.68296
71 1 2.61261 -0.00320605 2.53226
72 1 1.69762 0.835981 2.5286
73 1 3.39745 6.6361 1.60335
74 1 4.13242 0.891323 1.77523
75 1 4.2021 0.0547485 2.4192
76 1 3.18229 0.872295 2.29751
77 1 4.92048 6.69042 1.62825
78 1 5.7332 0.748897 1.628
79 1 5.77019 0.0403189 2.50407
80 1 4.9403 0.893161 2.54356
81 1 0.0495959 1.6087 1.67775
82 1 1.25707 2.59528 1.79633
83 1 1.07498 1.75032 2.32286
84 1 0.00553854 2.48692 2.43233
85 1 1.65869 1.53069 1.4353
86 1 2.35859 2.35617 1.53755
87 1 2.49909 1.71812 2.40399
88 1 2.03437 2.71586 2.62096
89 1 3.46073 1.77466 1.74707
90 1 4.25441 2.62197 1.68121
91 1 4.18784 1.7194 2.45437
92 1 3.16354 2.60378 2.67176
93 1 4.95622 1.58311 1.63953
94 1 5.77777 2.48815 1.58655
95 1 5.8084 1.51713 2.44406
96 1 5.10001 2.55512 2.54331
97 1 6.62961 3.59702 1.78606
98 1 0.674711 4.54428 1.56474
99 1 0.995226 3.40319 2.37319
100 1 6.48767 4.27465 2.53894
101 1 1.88143 3.39126 1.65739
102 1 2.63391 4.22092 1.72035
103 1 2.55994 3.51237 2.52496
104 1 1.7662 4.13346 2.67226
105 1 3.28663 3.41129 1.72777
106 1 4.16921 3.94131 1.78149
107 1 4.10683 3.21504 2.5214
108 1 3.44116 4.13632 2.64826
109 1 5.11725 3.34767 1.7905
110 1 5.82322 4.09192 1.61559
111 1 5.92265 3.17887 2.58765
112 1 5.01306 4.071 2.52882
113 1 6.47139 5.31404 1.63702
114 1 0.76459 5.82573 1.77669
115 1 0.6928 4.79807 2.55225
116 1 6.68653 5.76877 2.58334
117 1 1.77013 4.79301 1.77877
118 1 2.73332 5.83263 1.78341
119 1 2.59123 4.92029 2.57746
120 1 1.57542 5.55362 2.5346
121 1 3.43831 4.99708 1.70821
122 1 4.12434 5.90652 1.6308
123 1 4.19742 5.02837 2.45031
124 1 3.469 5.89825 2.56698
125 1 4.85787 4.77893 1.7218
126 1 5.52716 5.86538 1.56421
127 1 5.71849 5.03801 2.41804
128 1 5.09928 5.94569 2.55875
129 1 0.0159577 6.64974 3.41273
130 1 0.908352 0.668164 3.25344
131 1 1.25394 0.163476 4.02343
132 1 6.52266 0.849771 4.19541
133 1 1.75393 6.67762 3.11961
134 1 2.6908 0.820977 3.20566
135 1 2.51506 0.0078232 4.01855
136 1 1.87727 0.908435 3.82007
137 1 3.55908 6.68583 3.18961
138 1 4.20892 0.869168 3.29429
139 1 4.36818 0.0723701 4.11
140 1 3.4425 0.71076 4.05993
141 1 4.96592 6.69271 3.36202
142 1 5.7659 0.770966 3.21842
143 1 5.76124 6.64984 4.22991
144 1 5.1138 0.929634 4.22648
145 1 0.163767 1.57677 3.09483
146 1 0.897596 2.45418 3.13368
147 1 0.587156 1.68421 4.13806
148 1 6.7003 2.48593 4.2448
149 1 1.74566 1.84199 3.29849
150 1 2.55222 2.46036 3.52627
151 1 2.49508 1.68626 4.23728
152 1 1.3494 2.40246 4.34185
153 1 3.37219 1.587 3.23491
154 1 4.18858 2.44185 3.19331
155 1 4.11383 1.6743 4.00868
156 1 3.4299 2.41322 4.27391
157 1 5.07746 1.81411 3.19046
158 1 5.80743 2.73688 3.55547
159 1 6.09397 1.74783 3.82394
160 1 4.89607 2.39501 4.16493
161 1 0.150119 3.44164 3.20443
162 1 0.916387 4.31676 3.51947
163 1 0.679439 3.38259 4.14373
164 1 0.0765076 4.19313 4.31689
165 1 1.71284 3.396 3.39913
166 1 2.50614 4.16226 3.37151
167 1 2.56623 3.43123 4.22489
168 1 1.6746 4.37481 4.4154
169 1 3.30475 3.36591 3.47766
170 1 4.35594 4.19561 3.41952
171 1 4.25429 3.40091 4.21501
172 1 3.39714 4.11425 4.35584
173 1 4.97248 3.31056 3.37105
174 1 5.88953 4.05497 3.3707
175 1 6.10192 3.42027 4.26199
176 1 5.11889 4.17223 4.08319
177 1 6.6823 4.9728 3.32704
178 1 0.900201 5.86827 3.31532
179 1 0.916645 5.12686 4.34697
180 1 6.69023 5.68079 4.1737
181 1 1.73666 5.00128 3.48432
182 1 2.4044 5.85219 3.35496
183 1 2.54165 4.98676 4.24511
184 1 1.76275 5.88436 4.17841
185 1 3.52158 4.95658 3.39302
186 1 4.25345 5.89999 3.43205
187 1 4.25351 4.93604 4.18943
188 1 3.39065 5.73125 4.21921
189 1 4.94749 5.03418 3.24671
190 1 5.93787 5.90374 3.54161
191 1 5.82358 5.00322 4.14521
192 1 5.00354 5.74378 4.0963
193 1 6.66371 0.128791 4.86315
194 1 0.812129 0.848993 5.03824
195 1 0.836848 6.66908 5.86943
196 1 6.7074 0.736056 5.79793
197 1 1.86878 6.59645 4.97831
198 1 2.56741 0.597655 4.87636
199 1 2.39708 0.263505 5.90877
200 1 1.50596 0.984327 6.09313
201 1 3.49013 0.211566 4.99455
202 1 4.22045 0.989309 4.90054
203 1 4.03141 0.113611 5.91186
204 1 3.29715 0.927059 5.99729
205 1 4.90129 6.6429 5.06934
206 1 5.82861 0.7505 5.12506
207 1 5.80645 6.61208 5.78156
208 1 4.93816 0.779864 5.78626
209 1 6.60985 1.61636 5.0198
210 1 0.964441 2.54751 5.34645
211 1 0.719168 1.54578 6.08264
212 1 6.69876 2.45662 5.83891
213 1 1.65517 1.47233 4.9454
214 1 2.44856 2.49111 5.01514
215 1 2.54533 1.9062 5.90397
216 1 1.66982 2.63191 6.06066
217 1 3.07327 1.51685 5.07753
218 1 4.29193 2.52671 5.02762
219 1 4.11772 1.65866 5.97065
220 1 3.51744 2.41116 5.81783
221 1 4.93012 1.68243 4.8761
222 1 5.86597 2.52274 4.94363
223 1 5.89055 1.74459 5.87121
224 1 5.07398 2.71469 5.88717
225 1 6.69821 3.4089 5.12696
226 1 0.883481 4.22213 5.13756
227 1 0.820293 3.43794 5.9124
228 1 6.68967 4.31957 5.83955
229 1 1.66804 3.40909 4.99882
230 1 2.53171 4.26341 5.05711
231 1 2.38964 3.35713 5.75355
232 1 1.63479 4.16292 6.00474
233 1 3.34043 3.25962 5.0743
234 1 4.20395 4.06134 5.12615
235 1 4.14553 3.34901 5.86938
236 1 3.4311 4.19031 5.79317
237 1 5.17025 3.43945 4.99677
238 1 5.93619 4.16791 5.12288
239 1 6.00818 3.26815 5.89224
240 1 4.98979 4.02112 5.89082
241 1 0.0789034 4.95766 5.02816
242 1 0.83876 6.23737 4.85839
243 1 1.01818 5.05043 6.07917
244 1 6.6055 5.93274 5.52951
245 1 1.64849 5.39423 5.05163
246 1 2.71426 5.7313 5.07692
247 1 2.61612 5.06536 5.83495
248 1 1.82547 6.01876 5.88094
249 1 3.52941 5.05952 5.06227
250 1 4.16177 5.93876 5.00638
251 1 4.19618 5.04576 5.97094
252 1 3.42395 5.89012 5.86002
253 1 5.11537 4.99552 4.91526
254 1 5.76249 5.91438 4.936
255 1 5.7635 5.02018 5.76467
256 1 4.92735 5.77646 5.66538
ITEM: TIMESTEP
400
ITEM: NUMBER OF ATOMS
256
ITEM: BOX BOUNDS pp pp pp
0.0000000000000000e+00 6.7030688442967747e+00
0.0000000000000000e+00 6.7030688442967747e+00
0.0000000000000000e+00 6.7030688442967747e+00
ITEM: ATOMS id type x y z
1 1 0.0555265 6.63579 0.253329
2 1 0.683302 0.767257 0.0626064
3 1 1.06278 6.67454 0.794938
4 1 6.69078 0.822954 0.849603
5 1 1.66188 0.323621 0.0115215
6 1 2.3945 1.14661 0.159576
7 1 2.62436 6.66528 0.887464
8 1 1.82988 0.767838 0.991256
9 1 3.41846 0.331603 0.186367
10 1 4.41479 0.888603 0.104496
11 1 4.15556 0.0682963 0.918378
12 1 3.30204 0.895847 1.0514
13 1 5.02788 6.64269 0.244083
14 1 5.70573 0.958071 0.0464887
15 1 5.74547 6.65109 1.02393
16 1 5.03504 0.811805 0.948785
17 1 6.59275 1.56303 6.66159
18 1 0.881479 2.44218 6.36152
19 1 0.778429 1.52232 0.727001
20 1 0.205482 2.35746 0.768398
21 1 1.38453 1.50634 6.59985
22 1 2.50599 2.31201 6.59038
23 1 2.56582 1.89415 1.11816
24 1 1.57482 2.23879 0.563581
25 1 3.40086 1.72552 0.118438
26 1 4.232 2.54102 0.178096
27 1 4.22403 1.58601 0.767515
28 1 3.53073 2.62571 0.826856
29 1 5.09214 1.92133 0.0621357
30 1 6.10015 2.50822 6.58568
31 1 5.92526 1.72279 0.693725
32 1 4.93074 2.58955 0.968185
33 1 0.0583575 3.41219 6.43436
34 1 0.746814 4.35155 6.46649
35 1 0.874774 3.26728 0.501234
36 1 0.192617 4.36259 0.95791
37 1 1.69665 3.01342 6.58066
38 1 2.76145 3.93392 0.00567995
39 1 2.49384 3.14191 0.694818
40 1 1.72148 3.97708 0.449707
41 1 3.35022 2.96759 6.48786
42 1 3.90735 4.09731 6.65195
43 1 4.28931 3.49196 1.01283
44 1 3.4749 4.37505 0.951129
45 1 5.02825 3.54349 0.0899859
46 1 6.0436 4.36193 0.0417314
47 1 5.94787 3.3055 0.568684
48 1 5.04012 4.35556 0.892421
49 1 6.6987 5.10736 0.262821
50 1 0.758402 5.84843 6.53113
51 1 0.929111 5.16937 1.11174
52 1 6.69425 5.82705 1.13823
53 1 1.5137 5.26144 0.103093
54 1 2.39156 5.89137 0.0605021
55 1 2.49135 4.89516 0.558556
56 1 1.88903 5.92168 0.978274
57 1 3.41909 5.2327 0.137691
58 1 4.11279 5.90403 0.0743955
59 1 4.25305 5.23293 0.922528
60 1 3.38452 5.94383 0.94774
61 1 5.16327 4.9577 0.0166767
62 1 5.76016 5.83512 0.0499576
63 1 5.83599 5.28174 0.929593
64 1 5.01288 5.92552 0.991913
65 1 0.265689 0.0270955 1.60783
66 1 0.83353 1.03479 1.62855
67 1 0.686576 0.10404 2.68399
68 1 6.67907 1.0293 2.40484
69 1 1.80901 6.71263 1.79691
70 1 2.62861 0.764955 1.88321
71 1 2.55723 6.62714 2.84252
72 1 1.45558 0.825767 2.44576
73 1 3.37968 0.0301307 1.67235
74 1 4.22571 0.730476 1.77514
75 1 4.26699 6.68749 2.52064
76 1 3.46915 0.857858 2.72815
77 1 5.0554 6.60626 1.80186
78 1 5.80877 0.878046 1.72754
79 1 6.00292 6.5704 2.38535
80 1 5.07344 0.721592 2.62963
81 1 6.6683 1.74913 1.75529
82 1 1.00837 2.28237 1.51444
83 1 0.826372 1.72173 2.42275
84 1 6.66677 2.53059 2.49764
85 1 1.80972 1.59429 1.90198
86 1 2.09921 2.67548 1.74171
87 1 2.62526 1.53032 2.62697
88 1 1.84984 2.48409 2.71897
89 1 3.36648 1.6172 1.85973
90 1 4.02909 2.60702 1.78271
91 1 4.19001 1.55479 2.60586
92 1 3.17899 2.80864 2.45735
93 1 4.85741 1.59218 1.7427
94 1 5.84359 2.45647 1.59193
95 1 5.81035 1.64711 2.36
96 1 5.10785 2.51487 2.44347
97 1 6.61455 3.25542 1.54164
98 1 1.01361 4.24693 1.67476
99 1 0.94673 2.95335 2.44705
100 1 0.149616 4.12662 2.18762
101 1 1.59391 3.4792 1.33129
102 1 2.41207 4.17743 1.4013
103 1 2.16108 3.64813 2.27386
104 1 1.62539 4.59973 2.47439
105 1 3.27247 3.42139 1.48402
106 1 4.16989 4.39045 1.63559
107 1 4.10676 3.35521 2.50656
108 1 3.38026 4.17315 2.26186
109 1 4.97606 3.37394 1.68444
110 1 5.99824 4.14495 1.57417
111 1 5.90534 3.36879 2.32524
112 1 4.94109 4.22689 2.44365
113 1 6.69125 5.00504 1.79258
114 1 1.01548 5.95835 1.79036
115 1 0.803293 5.16872 2.51368
116 1 0.0922776 5.94063 2.47023
117 1 1.85965 4.96089 1.50931
118 1 2.53781 5.90838 1.7545
119 1 2.72391 5.02709 2.6451
120 1 1.63591 5.80813 2.56851
121 1 3.16285 5.0788 1.65128
122 1 4.14724 5.94549 1.66141
123 1 4.01999 4.97949 2.62101
124 1 3.44727 5.96009 2.692
125 1 5.0348 5.02812 1.72422
126 1 5.73224 5.67188 1.90813
127 1 5.85638 4.92089 2.48333
128 1 4.8094 5.71117 2.48762
129 1 6.50377 6.69576 3.36461
130 1 0.75908 1.03937 3.20027
131 1 0.95925 0.117953 4.13314
132 1 0.00518836 0.732513 3.97588
133 1 1.64388 6.61062 3.27778
134 1 2.76408 0.898345 3.70218
135 1 2.661 -0.0166978 4.20614
136 1 1.6895 0.849134 4.24622
137 1 3.53055 0.163286 3.5176
138 1 4.35088 0.914836 3.46493
139 1 4.12656 6.47337 4.40971
140 1 3.49184 0.646629 4.39451
141 1 5.12334 6.50128 3.21895
142 1 6.01387 0.923661 3.18647
143 1 5.75566 6.43314 4.0955
144 1 5.21077 0.855667 4.11119
145 1 6.70703 1.80158 3.28048
146 1 1.02442 2.49677 3.37479
147 1 0.648438 1.69488 4.14675
148 1 6.49621 2.44363 4.26621
149 1 1.82235 1.46934 3.42755
150 1 2.58753 2.6136 3.50738
151 1 2.53345 1.78581 4.24946
152 1 1.81411 2.6824 4.2879
153 1 3.53046 1.61757 3.48935
154 1 4.18211 2.52799 3.48911
155 1 4.21603 1.57626 4.36204
156 1 3.53781 2.3566 4.27085
157 1 5.08092 1.71511 3.27014
158 1 5.94632 2.47239 3.35517
159 1 5.99094 1.57588 4.09074
160 1 5.1166 2.43259 3.97081
161 1 6.64202 3.28433 3.30953
162 1 0.910801 4.29421 3.09118
163 1 0.645519 3.61164 3.90871
164 1 6.44842 4.05958 4.01571
165 1 1.6026 3.33995 3.35134
166 1 2.71435 3.89123 3.25751
167 1 2.62613 3.40925 4.29274
168 1 1.65458 4.02918 4.14204
169 1 3.61539 3.33879 3.47821
170 1 4.26849 4.21712 3.30072
171 1 4.04891 3.51391 4.48746
172 1 3.18664 4.2233 4.26877
173 1 4.95017 3.37538 3.15999
174 1 5.71453 4.24893 3.26963
175 1 5.63748 3.44834 4.00479
176 1 5.02554 4.26245 4.13135
177 1 0.0209871 4.8566 3.16097
178 1 0.649915 5.93854 3.40188
179 1 0.711962 4.81593 4.12375
180 1 6.65064 5.77356 4.11677
181 1 1.55247 5.10211 3.43205
182 1 2.47937 5.72836 3.27967
183 1 2.3732 4.89131 4.21352
184 1 1.81362 6.02958 4.21635
185 1 3.41661 5.02231 3.50157
186 1 4.1827 5.84174 3.48018
187 1 4.14685 4.99725 4.2684
188 1 3.22423 5.64553 4.25145
189 1 4.99071 5.05573 3.36791
190 1 5.93225 5.77769 3.17626
191 1 5.75606 5.111 4.19859
192 1 4.85862 5.76759 4.27875
193 1 6.66904 6.58157 4.87249
194 1 0.651911 0.87281 4.83442
195 1 0.447163 0.294765 5.86285
196 1 6.37759 1.02868 5.85576
197 1 1.55615 0.0483187 5.03549
198 1 2.5074 0.715104 5.03984
199 1 2.62438 0.276933 6.05385
200 1 1.62376 0.933152 5.7475
201 1 3.37914 6.65714 5.40713
202 1 4.44034 0.821006 5.11926
203 1 4.343 0.012048 6.01272
204 1 3.6634 1.03272 5.93616
205 1 5.02754 6.61573 5.05947
206 1 5.95957 0.676707 4.92705
207 1 5.84898 0.149549 6.22496
208 1 5.08792 0.770315 5.95697
209 1 6.58011 1.63676 5.02933
210 1 0.931069 2.30193 4.93143
211 1 0.764583 1.50076 5.78445
212 1 6.57255 2.48742 5.67648
213 1 1.6134 1.58632 4.94856
214 1 2.57694 2.56446 5.03592
215 1 2.46658 1.47685 5.71741
216 1 1.67964 2.21813 5.73281
217 1 3.32258 1.54779 4.92677
218 1 4.20187 2.65592 5.0853
219 1 4.4755 1.78074 5.72845
220 1 3.35571 2.25788 5.7461
221 1 5.13872 1.55844 4.87674
222 1 5.83181 2.6835 4.99055
223 1 5.69957 1.8462 5.7809
224 1 5.00846 2.69056 5.7584
225 1 6.69498 3.39736 4.72623
226 1 0.769708 4.15652 4.97245
227 1 0.812067 3.21709 5.54212
228 1 6.62277 4.1122 5.76506
229 1 1.76994 3.38938 4.99741
230 1 2.53485 4.08497 5.09327
231 1 2.37237 3.09799 5.84051
232 1 1.66406 4.01684 5.85763
233 1 3.34412 3.28642 5.37445
234 1 4.0475 4.42904 5.11055
235 1 4.13994 3.51972 5.84225
236 1 3.2011 4.25706 5.83172
237 1 5.00973 3.59676 4.9049
238 1 5.93613 4.09931 4.92219
239 1 5.8857 3.31209 5.85443
240 1 5.19036 4.18289 5.80308
241 1 6.60325 5.18961 4.92243
242 1 0.998383 5.76686 4.72312
243 1 0.750541 5.1828 5.61698
244 1 6.50532 5.95666 5.79336
245 1 1.91767 5.02306 5.05203
246 1 2.33391 5.99278 5.08805
247 1 2.43603 4.93775 6.14154
248 1 1.5256 6.03617 5.80353
249 1 3.02626 5.00356 5.12268
250 1 4.13382 5.60639 5.14621
251 1 4.17558 4.90078 6.02069
252 1 3.29042 5.68962 5.85603
253 1 4.94809 5.0135 5.0544
254 1 5.7702 5.84911 5.02454
255 1 6.01358 5.07158 6.00028
256 1 5.14784 5.84826 5.89021
ITEM: TIMESTEP
600
ITEM: NUMBER OF ATOMS
256
ITEM: BOX BOUNDS pp pp pp
0.0000000000000000e+00 6.7030688442967747e+00
0.0000000000000000e+00 6.7030688442967747e+00
0.0000000000000000e+00 6.7030688442967747e+00
ITEM: ATOMS id type x y z
1 1 6.66757 0.267731 -0.0124775
2 1 0.722843 0.919588 6.56842
3 1 0.765111 0.133623 0.715242
4 1 6.49945 0.856676 1.13432
5 1 1.61235 0.0622325 6.60623
6 1 2.489 0.938839 0.118106
7 1 2.65736 6.7193 0.821014
8 1 1.68969 0.740067 0.831833
9 1 3.53196 6.6731 6.51863
10 1 4.35087 0.96814 0.0278702
11 1 4.30592 6.67753 0.917077
12 1 3.5138 0.632234 0.676808
13 1 5.03071 0.0794198 6.59721
14 1 5.81185 0.829769 0.211299
15 1 5.39827 6.67627 0.885303
16 1 4.90109 0.820435 1.1202
17 1 6.62523 1.5314 0.442549
18 1 0.712057 2.41483 0.346909
19 1 0.790866 1.21027 0.918373
20 1 0.0630798 2.33331 1.20667
21 1 1.53781 1.76156 0.287558
22 1 2.35242 2.53573 0.048783
23 1 2.52586 1.66419 0.851291
24 1 1.74519 2.7162 0.962264
25 1 3.40651 1.52377 6.55051
26 1 4.23559 2.73187 -0.00059923
27 1 4.14773 1.67629 0.701061
28 1 3.20466 2.58797 0.762604
29 1 5.09814 1.62106 0.0479785
30 1 6.26495 2.48836 0.180833
31 1 5.67404 1.60334 0.930863
32 1 5.07583 2.5674 0.648055
33 1 0.323103 3.36713 6.53641
34 1 0.681624 4.31229 0.156839
35 1 0.710074 3.41017 1.2391
36 1 0.129328 4.28785 1.04338
37 1 1.26133 3.40277 0.269723
38 1 2.32834 4.30405 0.0592844
39 1 2.46005 3.43834 0.827278
40 1 1.70188 4.22954 0.958973
41 1 3.16241 3.3966 6.64874
42 1 4.18269 4.11867 6.61404
43 1 4.21643 3.25888 0.980782
44 1 3.52983 4.0313 0.824611
45 1 5.14731 3.4071 6.44487
46 1 5.96734 4.26381 6.68609
47 1 6.32398 3.48398 0.600693
48 1 4.99044 4.05841 0.708485
49 1 6.63364 5.18518 6.61334
50 1 0.776246 5.83865 0.309858
51 1 0.884336 5.01673 0.93294
52 1 6.51119 5.90813 0.855991
53 1 1.75162 5.13585 0.272785
54 1 2.72077 5.94884 6.67351
55 1 2.76321 5.04163 1.00873
56 1 1.82264 6.0334 0.808337
57 1 3.42604 4.98794 0.0530337
58 1 4.2479 6.0079 6.56988
59 1 4.2061 4.9672 0.880834
60 1 3.42531 5.9451 0.916582
61 1 5.37341 5.21992 6.57745
62 1 5.90857 6.22943 0.0286127
63 1 5.99094 5.0056 0.762918
64 1 4.95301 5.63916 0.7827
65 1 0.196054 6.54563 1.71721
66 1 0.802571 0.708463 1.98098
67 1 0.989138 6.54595 2.72073
68 1 6.70541 0.782048 2.66816
69 1 1.7311 0.0102869 1.66526
70 1 2.4963 0.740305 1.60386
71 1 2.54986 6.55532 2.61262
72 1 1.77481 0.762671 2.61149
73 1 3.36011 0.03451 1.74658
74 1 4.05147 0.826882 1.68213
75 1 4.16405 0.0926736 2.47882
76 1 3.20065 0.907842 2.36586
77 1 5.00418 6.67151 1.88002
78 1 5.70289 0.97805 1.73336
79 1 5.92976 6.65013 2.48415
80 1 4.88959 0.870243 2.40844
81 1 6.67217 1.51828 1.90075
82 1 0.922574 2.45912 1.78437
83 1 0.945847 1.74573 2.58951
84 1 6.65559 2.41937 2.51909
85 1 1.57989 1.49161 1.6281
86 1 2.49476 2.46223 1.69111
87 1 2.40033 1.64406 2.47598
88 1 1.70788 2.62639 2.64685
89 1 3.26606 1.6912 1.59355
90 1 4.02619 2.52077 1.73813
91 1 4.0576 1.68802 2.31769
92 1 3.24575 2.41679 2.51299
93 1 4.82665 1.70583 1.72224
94 1 5.77996 2.47417 1.57072
95 1 5.6537 1.81451 2.45932
96 1 4.82316 2.58447 2.48011
97 1 6.50856 3.31391 1.82488
98 1 0.922346 4.51558 1.84914
99 1 0.8501 3.42716 2.39597
100 1 0.0463596 4.21472 2.36624
101 1 1.7341 3.44626 1.71557
102 1 2.50697 4.11223 1.84627
103 1 2.43802 3.23403 2.48536
104 1 1.82883 4.06897 2.58405
105 1 3.2849 3.43369 1.65952
106 1 4.1887 4.10186 1.71758
107 1 3.97992 3.36106 2.50454
108 1 3.21293 4.08991 2.72466
109 1 4.98313 3.20948 1.66428
110 1 5.83214 4.18011 1.51405
111 1 5.7599 3.26584 2.44963
112 1 5.03669 3.91812 2.56285
113 1 6.59776 5.15976 1.6217
114 1 0.994372 6.00003 1.42282
115 1 0.719574 5.31164 2.43685
116 1 6.59561 5.86053 2.62055
117 1 1.73656 5.11961 1.4737
118 1 2.57734 5.92811 1.5447
119 1 2.47519 5.03927 2.32921
120 1 1.74285 5.79393 2.24835
121 1 3.44706 4.79704 1.80178
122 1 4.26803 5.82167 1.61874
123 1 4.40003 4.9141 2.36097
124 1 3.3295 5.71593 2.28064
125 1 5.19827 5.01658 1.69739
126 1 5.88051 5.90608 1.75547
127 1 5.82469 4.83026 2.51666
128 1 5.12532 5.83817 2.51977
129 1 6.60138 0.038241 3.51374
130 1 1.01467 0.68089 3.39271
131 1 0.99804 6.5684 4.14399
132 1 0.333728 0.735423 4.19243
133 1 1.8758 6.50468 3.40204
134 1 2.52863 1.06458 3.3889
135 1 2.67604 6.34652 4.05303
136 1 1.9575 0.512362 4.16292
137 1 3.30086 0.127976 3.25807
138 1 4.11678 0.935169 3.24095
139 1 4.13947 6.64944 4.05535
140 1 3.3517 0.847129 4.23164
141 1 4.84065 0.0235069 3.31123
142 1 5.66229 0.772277 3.38839
143 1 5.76706 6.50779 4.19305
144 1 4.72444 0.868947 4.02602
145 1 6.48928 1.69624 3.32061
146 1 0.776726 2.61164 3.25569
147 1 0.700824 1.93273 4.04674
148 1 6.56831 2.4359 4.0492
149 1 1.5823 1.70342 3.41716
150 1 2.48773 2.28874 3.29544
151 1 2.63472 1.69811 4.2863
152 1 1.64652 2.60278 3.94839
153 1 3.36644 1.73694 3.30499
154 1 4.05339 2.61986 3.34929
155 1 4.0949 1.68245 4.14738
156 1 3.44192 2.42417 4.19137
157 1 4.87885 1.64972 3.26649
158 1 5.84827 2.64802 3.34929
159 1 5.72548 1.55025 4.14737
160 1 5.05556 2.36098 4.14909
161 1 0.0523663 3.3635 3.13169
162 1 0.693879 4.40807 3.27528
163 1 0.56222 3.59223 4.16775
164 1 6.65564 4.31196 4.4709
165 1 1.40199 3.54794 3.4201
166 1 2.44027 4.27 3.38549
167 1 2.41547 3.49241 4.04937
168 1 1.72767 4.35876 4.14602
169 1 3.14199 3.09287 3.3473
170 1 4.12906 4.11559 3.35829
171 1 4.10434 3.3545 4.34952
172 1 3.3508 4.1907 4.11562
173 1 4.88929 3.16557 3.42086
174 1 5.8636 4.13454 3.19242
175 1 5.97409 3.48347 4.06178
176 1 5.19377 4.10511 4.14343
177 1 6.56561 5.02797 3.34401
178 1 1.04697 5.69855 3.45217
179 1 0.816426 5.03403 4.14204
180 1 6.6553 5.62456 4.25817
181 1 1.68444 4.90624 3.11558
182 1 2.66892 5.55448 3.2823
183 1 2.59955 4.94637 4.43333
184 1 1.86162 5.68111 4.09623
185 1 3.63784 5.05724 3.29396
186 1 4.10498 5.96067 3.25256
187 1 4.29476 4.91196 4.02128
188 1 3.51502 5.8484 4.22213
189 1 5.07163 4.99018 3.26849
190 1 5.79119 5.89377 3.30406
191 1 5.75799 5.03446 4.09583
192 1 4.94212 5.90936 4.02664
193 1 0.089129 6.59398 4.78593
194 1 1.09821 0.596919 5.09711
195 1 0.854569 6.56185 5.95781
196 1 0.202201 0.766111 5.53934
197 1 1.82714 6.49392 4.91643
198 1 2.65041 0.872277 5.1554
199 1 2.52073 0.0428113 6.00897
200 1 1.72412 1.07066 6.00795
201 1 3.3108 6.57826 4.90571
202 1 4.1004 0.616348 4.9263
203 1 4.2539 6.69406 5.78954
204 1 3.59199 0.778873 5.86874
205 1 4.93163 6.62161 5.01645
206 1 5.77467 0.757459 4.85183
207 1 5.86036 0.0940785 5.67122
208 1 4.91953 1.01033 5.73646
209 1 0.019178 1.64829 4.96739
210 1 0.710118 2.61832 5.27122
211 1 0.697141 1.78816 5.95331
212 1 6.49945 2.44109 5.8188
213 1 1.40983 1.78281 4.7609
214 1 2.4645 2.65922 4.84684
215 1 2.57073 1.73722 6.02685
216 1 1.68949 2.39044 5.69603
217 1 3.19546 1.82927 5.10357
218 1 4.24533 2.46488 5.10161
219 1 4.31142 1.85203 5.8991
220 1 3.37173 2.51315 6.03075
221 1 4.84963 1.69208 4.95554
222 1 5.73889 2.2867 4.92806
223 1 6.06157 1.55389 5.90781
224 1 5.26253 2.37099 5.94126
225 1 6.61988 3.26907 4.95618
226 1 0.959745 4.26181 5.13794
227 1 1.16459 3.41774 5.94307